 Q-Chem 6.1, Q-Chem, Inc., Pleasanton, CA (2023)
 Q-Chem 6.1.1 for Intel X86 EM64T Linux

User input:
--------------------------------------------------------------
$molecule
0 1
O    0.0000000    0.0000000   -1.1962869
C    0.0000000    0.0000000    0.0000000
O    0.0000000    0.0000000    1.1962869
$end

$rem
BASIS  =  6-31+G*
GUI  =  2
JOB_TYPE  =  Optimization
METHOD  =  wB97XD
SCF_CONVERGENCE  =  8
$end

--------------------------------------------------------------

   11    -188.5197547051      7.59e-10  Convergence criterion met
 Total energy =  -188.51975471
    9    -188.5232548680      6.85e-10  Convergence criterion met
 Total energy =  -188.52325487
    8    -188.5236292462      5.27e-09  Convergence criterion met
 Total energy =  -188.52362925
    7    -188.5236345386      4.54e-09  Convergence criterion met
 Total energy =  -188.52363454
    6    -188.5236345450      1.02e-09  Convergence criterion met
 Total energy =  -188.52363455
 Final energy is -188.523634545041
	**  OPTIMIZATION CONVERGED  **
 Total job time:  11.25s(wall), 11.24s(cpu)
        *  Thank you very much for using Q-Chem.  Have a nice day.  *
 Q-Chem 6.1, Q-Chem, Inc., Pleasanton, CA (2023)
 Q-Chem 6.1.1 for Intel X86 EM64T Linux

User input:
--------------------------------------------------------------

$molecule
read
$end

$rem
BASIS  =  6-31+G*
GUI  =  2
JOB_TYPE  =  Frequency
METHOD  =  wB97XD
SCF_CONVERGENCE  =  8
$end

--------------------------------------------------------------

             Standard Nuclear Orientation (Angstroms)
    I     Atom           X                Y                Z
 ----------------------------------------------------------------
    1      O       0.0000000000     0.0000000000    -1.1647637829
    2      C       0.0000000000     0.0000000000     0.0000000002
    3      O       0.0000000000     0.0000000000     1.1647637827
 ----------------------------------------------------------------

   10    -188.5236345452      9.20e-09  Convergence criterion met
 Total energy =  -188.52363455

                    Orbital Energies (a.u.)
 --------------------------------------------------------------

 Alpha MOs
 -- Occupied --
-19.3706 -19.3706 -10.5081  -1.2785  -1.2348  -0.6655  -0.6182  -0.6177
 -0.6177  -0.4662  -0.4662

          Ground-State Mulliken Net Atomic Charges

     Atom                 Charge (a.u.)
  ----------------------------------------
      1 O                    -0.374443
      2 C                     0.748886
      3 O                    -0.374443
  ----------------------------------------
  Sum of atomic charges =     0.000000

                    Cartesian Multipole Moments
 -----------------------------------------------------------------
    Charge (ESU x 10^10)
                 0.0000
    Dipole Moment (Debye)
         X      -0.0000      Y       0.0000      Z      -0.0000
       Tot       0.0000
    Quadrupole Moments (Debye-Ang)
        XX     -14.7840     XY      -0.0000     YY     -14.7840
        XZ      -0.0000     YZ      -0.0000     ZZ     -19.6497

 Frequency:       662.75                 662.75                1394.82
 Force Cnst:      3.3326                 3.3326                18.3345
 Red. Mass:      12.8774                12.8774                15.9949
 IR Intens:       36.144                 36.144                  0.000
 Frequency:      2458.29
 Force Cnst:     45.8505
 Red. Mass:      12.8774
 IR Intens:      715.895

 STANDARD THERMODYNAMIC QUANTITIES AT   298.15 K  AND     1.00 ATM

   This Molecule has  0 Imaginary Frequencies
   Zero point vibrational energy:        7.403 kcal/mol

   Atom    1 Element O  Has Mass   15.99491
   Atom    2 Element C  Has Mass   12.00000
   Atom    3 Element O  Has Mass   15.99491
   Molecular Mass:    43.989820 amu
   Principal axes and moments of inertia in amu*Bohr^2:
                             1           2           3
    Eigenvalues --        0.00000   154.98342   154.98342
          X               0.00000     0.00000     1.00000
          Y               0.00000     1.00000     0.00000
          Z               1.00000     0.00000     0.00000
   Rotational Symmetry Number is   2
   The Molecule is a Symmetric Top
   Translational Enthalpy:        0.889 kcal/mol
   Rotational Enthalpy:           0.592 kcal/mol
   Vibrational Enthalpy:          7.569 kcal/mol
   gas constant (RT):             0.592 kcal/mol
   Translational Entropy:        37.270  cal/mol.K
   Rotational Entropy:           13.088  cal/mol.K
   Vibrational Entropy:           0.725  cal/mol.K

   Total Enthalpy:                9.643 kcal/mol
   Total Entropy:                51.084  cal/mol.K

 Total job time:  33.72s(wall), 33.74s(cpu)
        *  Thank you very much for using Q-Chem.  Have a nice day.  *
