 Q-Chem 6.1, Q-Chem, Inc., Pleasanton, CA (2023)
 Q-Chem 6.1.1 for Intel X86 EM64T Linux

User input:
--------------------------------------------------------------
$molecule
0 1
O   -0.0000000   -0.0184041    0.0000000
H    0.0000000    0.5383517   -0.7830365
H   -0.0000000    0.5383517    0.7830365
$end

$rem
BASIS  =  6-31+G*
GUI  =  2
JOB_TYPE  =  Optimization
METHOD  =  wB97XD
SCF_CONVERGENCE  =  8
$end

--------------------------------------------------------------

   10     -76.3964041892      7.49e-09  Convergence criterion met
 Total energy =   -76.39640419
    8     -76.3966902410      5.16e-09  Convergence criterion met
 Total energy =   -76.39669024
    8     -76.3967061348      1.92e-09  Convergence criterion met
 Total energy =   -76.39670613
    6     -76.3967061603      5.73e-09  Convergence criterion met
 Total energy =   -76.39670616
 Final energy is -76.396706160328
	**  OPTIMIZATION CONVERGED  **
 Total job time:  4.08s(wall), 4.07s(cpu)
        *  Thank you very much for using Q-Chem.  Have a nice day.  *
 Q-Chem 6.1, Q-Chem, Inc., Pleasanton, CA (2023)
 Q-Chem 6.1.1 for Intel X86 EM64T Linux

User input:
--------------------------------------------------------------

$molecule
read
$end

$rem
BASIS  =  6-31+G*
GUI  =  2
JOB_TYPE  =  Frequency
METHOD  =  wB97XD
SCF_CONVERGENCE  =  8
$end

--------------------------------------------------------------

             Standard Nuclear Orientation (Angstroms)
    I     Atom           X                Y                Z
 ----------------------------------------------------------------
    1      O      -0.0000000000    -0.0000000000     0.1164048256
    2      H      -0.7681091723    -0.0000000000    -0.4656193025
    3      H       0.7681091723     0.0000000000    -0.4656193025
 ----------------------------------------------------------------

   10     -76.3967061603      7.80e-09  Convergence criterion met
 Total energy =   -76.39670616

             Orbital Energies (a.u.) and Symmetries
 --------------------------------------------------------------

 Alpha MOs, Restricted
 -- Occupied --
-19.286  -1.121  -0.631  -0.480  -0.404
  1 A1    2 A1    1 B1    3 A1    1 B2

 Beta MOs, Restricted
 -- Occupied --
-19.286  -1.121  -0.631  -0.480  -0.404
  1 A1    2 A1    1 B1    3 A1    1 B2

          Ground-State Mulliken Net Atomic Charges

     Atom                 Charge (a.u.)
  ----------------------------------------
      1 O                    -0.945147
      2 H                     0.472573
      3 H                     0.472573
  ----------------------------------------
  Sum of atomic charges =     0.000000

                    Cartesian Multipole Moments
 -----------------------------------------------------------------
    Charge (ESU x 10^10)
                 0.0000
    Dipole Moment (Debye)
         X       0.0000      Y       0.0000      Z      -2.2805
       Tot       2.2805
    Quadrupole Moments (Debye-Ang)
        XX      -4.2488     XY      -0.0000     YY      -7.8407
        XZ      -0.0000     YZ      -0.0000     ZZ      -6.4351

 Frequency:      1680.53                3828.01                3955.92
 Force Cnst:      1.8021                 9.0209                 9.9860
 Red. Mass:       1.0830                 1.0449                 1.0830
 IR Intens:      103.513                  9.824                 62.171

 STANDARD THERMODYNAMIC QUANTITIES AT   298.15 K  AND     1.00 ATM

   This Molecule has  0 Imaginary Frequencies
   Zero point vibrational energy:       13.530 kcal/mol

   Atom    1 Element O  Has Mass   15.99491
   Atom    2 Element H  Has Mass    1.00783
   Atom    3 Element H  Has Mass    1.00783
   Molecular Mass:    18.010570 amu
   Principal axes and moments of inertia in amu*Bohr^2:
                             1           2           3
    Eigenvalues --        2.16547     4.24679     6.41226
          X               1.00000     0.00000    -0.00000
          Y               0.00000     0.00000     1.00000
          Z              -0.00000     1.00000    -0.00000
   Rotational Symmetry Number is   2
   The Molecule is an Asymmetric Top
   Translational Enthalpy:        0.889 kcal/mol
   Rotational Enthalpy:           0.889 kcal/mol
   Vibrational Enthalpy:         13.532 kcal/mol
   gas constant (RT):             0.592 kcal/mol
   Translational Entropy:        34.608  cal/mol.K
   Rotational Entropy:           10.476  cal/mol.K
   Vibrational Entropy:           0.005  cal/mol.K

   Total Enthalpy:               15.902 kcal/mol
   Total Entropy:                45.090  cal/mol.K

 Total job time:  5.65s(wall), 5.65s(cpu)
        *  Thank you very much for using Q-Chem.  Have a nice day.  *
