 Q-Chem 6.1, Q-Chem, Inc., Pleasanton, CA (2023)
 Q-Chem 6.1.1 for Intel X86 EM64T Linux

User input:
--------------------------------------------------------------
$molecule
0 1
P    0.0000000   -0.0000000    0.0289655
H    0.6124231    1.0607479   -0.7117064
H    0.6124231   -1.0607479   -0.7117064
H   -1.2248462    0.0000000   -0.7117064
$end

$rem
BASIS  =  6-31+G*
GUI  =  2
JOB_TYPE  =  Optimization
METHOD  =  wB97XD
SCF_CONVERGENCE  =  8
$end

--------------------------------------------------------------

   10    -343.1084735549      2.70e-09  Convergence criterion met
 Total energy =  -343.10847355
    8    -343.1088710460      3.19e-09  Convergence criterion met
 Total energy =  -343.10887105
    8    -343.1089214340      2.46e-09  Convergence criterion met
 Total energy =  -343.10892143
    7    -343.1089274270      6.92e-09  Convergence criterion met
 Total energy =  -343.10892743
    7    -343.1089286466      4.49e-09  Convergence criterion met
 Total energy =  -343.10892865
    5    -343.1089286603      6.94e-09  Convergence criterion met
 Total energy =  -343.10892866
 Final energy is -343.108928660278
	**  OPTIMIZATION CONVERGED  **
 Total job time:  9.72s(wall), 9.69s(cpu)
        *  Thank you very much for using Q-Chem.  Have a nice day.  *
 Q-Chem 6.1, Q-Chem, Inc., Pleasanton, CA (2023)
 Q-Chem 6.1.1 for Intel X86 EM64T Linux

User input:
--------------------------------------------------------------

$molecule
read
$end

$rem
BASIS  =  6-31+G*
GUI  =  2
JOB_TYPE  =  Frequency
METHOD  =  wB97XD
SCF_CONVERGENCE  =  8
$end

--------------------------------------------------------------

             Standard Nuclear Orientation (Angstroms)
    I     Atom           X                Y                Z
 ----------------------------------------------------------------
    1      P       0.0001590649     0.1268654726    -0.0000000000
    2      H       1.1963601161    -0.6353387523    -0.0000000001
    3      H      -0.5993730443    -0.6338216683     1.0366627052
    4      H      -0.5993730446    -0.6338216683    -1.0366627051
 ----------------------------------------------------------------

   10    -343.1089288770      2.23e-09  Convergence criterion met
 Total energy =  -343.10892888

             Orbital Energies (a.u.) and Symmetries
 --------------------------------------------------------------

 Alpha MOs, Restricted
 -- Occupied --
-77.233  -6.674  -4.821  -4.821  -4.817  -0.748  -0.473  -0.473
  1 A'    2 A'    3 A'    1 A"    4 A'    5 A'    6 A'    2 A"
 -0.356
  7 A'

 Beta MOs, Restricted
 -- Occupied --
-77.233  -6.674  -4.821  -4.821  -4.817  -0.748  -0.473  -0.473
  1 A'    2 A'    3 A'    1 A"    4 A'    5 A'    6 A'    2 A"
 -0.356
  7 A'

          Ground-State Mulliken Net Atomic Charges

     Atom                 Charge (a.u.)
  ----------------------------------------
      1 P                    -0.097673
      2 H                     0.032631
      3 H                     0.032521
      4 H                     0.032521
  ----------------------------------------
  Sum of atomic charges =     0.000000

                    Cartesian Multipole Moments
 -----------------------------------------------------------------
    Charge (ESU x 10^10)
                 0.0000
    Dipole Moment (Debye)
         X      -0.0006      Y      -0.9754      Z      -0.0000
       Tot       0.9754
    Quadrupole Moments (Debye-Ang)
        XX     -14.6821     XY      -0.0028     YY     -17.3070
        XZ      -0.0000     YZ      -0.0000     ZZ     -14.6832

 Frequency:      1059.29                1181.22                1181.37
 Force Cnst:      0.7114                 0.8432                 0.8436
 Red. Mass:       1.0760                 1.0257                 1.0260
 IR Intens:       19.867                 12.542                 12.822
 Frequency:      2455.05                2467.27                2471.57
 Force Cnst:      3.6693                 3.7272                 3.7467
 Red. Mass:       1.0333                 1.0392                 1.0410
 IR Intens:       68.010                 95.773                104.917

 STANDARD THERMODYNAMIC QUANTITIES AT   298.15 K  AND     1.00 ATM

   This Molecule has  0 Imaginary Frequencies
   Zero point vibrational energy:       15.462 kcal/mol

   Atom    1 Element P  Has Mass   30.97376
   Atom    2 Element H  Has Mass    1.00783
   Atom    3 Element H  Has Mass    1.00783
   Atom    4 Element H  Has Mass    1.00783
   Molecular Mass:    33.997250 amu
   Principal axes and moments of inertia in amu*Bohr^2:
                             1           2           3
    Eigenvalues --       13.43515    13.43672    15.47262
          X               1.00000    -0.00000    -0.00030
          Y               0.00030     0.00000     1.00000
          Z              -0.00000    -1.00000     0.00000
   Rotational Symmetry Number is   1
   The Molecule is an Asymmetric Top
   Translational Enthalpy:        0.889 kcal/mol
   Rotational Enthalpy:           0.889 kcal/mol
   Vibrational Enthalpy:         15.503 kcal/mol
   gas constant (RT):             0.592 kcal/mol
   Translational Entropy:        36.502  cal/mol.K
   Rotational Entropy:           15.687  cal/mol.K
   Vibrational Entropy:           0.163  cal/mol.K

   Total Enthalpy:               17.873 kcal/mol
   Total Entropy:                52.353  cal/mol.K

 Total job time:  10.64s(wall), 10.64s(cpu)
        *  Thank you very much for using Q-Chem.  Have a nice day.  *
