 Q-Chem 6.1, Q-Chem, Inc., Pleasanton, CA (2023)
 Q-Chem 6.1.1 for Intel X86 EM64T Linux

User input:
--------------------------------------------------------------
$molecule
0 1
O   -0.0000000   -0.5334808    1.1056429
S    0.0000000    0.5323628   -0.0000000
O    0.0000000   -0.5334808   -1.1056429
$end

$rem
BASIS  =  6-31+G*
GUI  =  2
JOB_TYPE  =  Optimization
METHOD  =  wB97XD
SCF_CONVERGENCE  =  8
$end

--------------------------------------------------------------

   13    -548.4617985264      2.61e-09  Convergence criterion met
 Total energy =  -548.46179853
   11    -548.5098216258      6.39e-09  Convergence criterion met
 Total energy =  -548.50982163
   11    -548.5155307803      3.50e-09  Convergence criterion met
 Total energy =  -548.51553078
   11    -548.5162158146      1.58e-09  Convergence criterion met
 Total energy =  -548.51621581
    8    -548.5162307797      9.26e-09  Convergence criterion met
 Total energy =  -548.51623078
    7    -548.5162307929      4.61e-09  Convergence criterion met
 Total energy =  -548.51623079
 Final energy is -548.516230792869
	**  OPTIMIZATION CONVERGED  **
 Total job time:  21.67s(wall), 21.69s(cpu)
        *  Thank you very much for using Q-Chem.  Have a nice day.  *
 Q-Chem 6.1, Q-Chem, Inc., Pleasanton, CA (2023)
 Q-Chem 6.1.1 for Intel X86 EM64T Linux

User input:
--------------------------------------------------------------

$molecule
read
$end

$rem
BASIS  =  6-31+G*
GUI  =  2
JOB_TYPE  =  Frequency
METHOD  =  wB97XD
SCF_CONVERGENCE  =  8
$end

--------------------------------------------------------------

             Standard Nuclear Orientation (Angstroms)
    I     Atom           X                Y                Z
 ----------------------------------------------------------------
    1      O       1.2476464451    -0.0000000000     0.3704484478
    2      S       0.0000000000     0.0000000000    -0.3704484325
    3      O      -1.2476464451     0.0000000000     0.3704484478
 ----------------------------------------------------------------

   12    -548.5162319945      2.12e-09  Convergence criterion met
 Total energy =  -548.51623199

             Orbital Energies (a.u.) and Symmetries
 --------------------------------------------------------------

 Alpha MOs, Restricted
 -- Occupied --
-89.256 -19.348 -19.348  -8.258  -6.208  -6.207  -6.202  -1.261
  1 A1    1 B1    2 A1    3 A1    2 B1    1 B2    4 A1    5 A1
 -1.166  -0.747  -0.594  -0.594  -0.593  -0.463  -0.452  -0.426
  3 B1    6 A1    2 B2    7 A1    4 B1    1 A2    5 B1    8 A1

 Beta MOs, Restricted
 -- Occupied --
-89.256 -19.348 -19.348  -8.258  -6.208  -6.207  -6.202  -1.261
  1 A1    1 B1    2 A1    3 A1    2 B1    1 B2    4 A1    5 A1
 -1.166  -0.747  -0.594  -0.594  -0.593  -0.463  -0.452  -0.426
  3 B1    6 A1    2 B2    7 A1    4 B1    1 A2    5 B1    8 A1

          Ground-State Mulliken Net Atomic Charges

     Atom                 Charge (a.u.)
  ----------------------------------------
      1 O                    -0.412804
      2 S                     0.825607
      3 O                    -0.412804
  ----------------------------------------
  Sum of atomic charges =     0.000000

                    Cartesian Multipole Moments
 -----------------------------------------------------------------
    Charge (ESU x 10^10)
                 0.0000
    Dipole Moment (Debye)
         X       0.0000      Y      -0.0000      Z      -2.0190
       Tot       2.0190
    Quadrupole Moments (Debye-Ang)
        XX     -27.6508     XY       0.0000     YY     -20.8521
        XZ       0.0000     YZ      -0.0000     ZZ     -22.9105

 Frequency:       516.01                1203.21                1392.86
 Force Cnst:      2.9148                15.3435                23.2157
 Red. Mass:      18.5797                17.9882                20.3104
 IR Intens:       40.072                 36.775                248.355

 STANDARD THERMODYNAMIC QUANTITIES AT   298.15 K  AND     1.00 ATM

   This Molecule has  0 Imaginary Frequencies
   Zero point vibrational energy:        4.449 kcal/mol

   Atom    1 Element O  Has Mass   15.99491
   Atom    2 Element S  Has Mass   31.97207
   Atom    3 Element O  Has Mass   15.99491
   Molecular Mass:    63.961890 amu
   Principal axes and moments of inertia in amu*Bohr^2:
                             1           2           3
    Eigenvalues --       31.34545   177.82491   209.17036
          X              -1.00000     0.00000     0.00000
          Y               0.00000     0.00000     1.00000
          Z               0.00000     1.00000     0.00000
   Rotational Symmetry Number is   2
   The Molecule is an Asymmetric Top
   Translational Enthalpy:        0.889 kcal/mol
   Rotational Enthalpy:           0.889 kcal/mol
   Vibrational Enthalpy:          4.597 kcal/mol
   gas constant (RT):             0.592 kcal/mol
   Translational Entropy:        38.386  cal/mol.K
   Rotational Entropy:           20.305  cal/mol.K
   Vibrational Entropy:           0.679  cal/mol.K

   Total Enthalpy:                6.967 kcal/mol
   Total Entropy:                59.370  cal/mol.K

 Total job time:  44.98s(wall), 45.02s(cpu)
        *  Thank you very much for using Q-Chem.  Have a nice day.  *
